
FAST Summary File

Predictions were generated on 27-Jan-2018 at 23:45:54 using FAST (v8.16.00a-bjj, 27-Jul-2016), compiled as a 32-bit application using single precision
  compiled with
    NWTC Subroutine Library (v2.09.00, 23-Jul-2016)
    ElastoDyn (v1.04.00a-bjj, 26-Jul-2016)
    BeamDyn (unknown version, unknown date) [not called]
    InflowWind (v3.03.00, 26-Jul-2016)
    AeroDyn14 (v14.05.01a-bjj, 25-Jul-2016)
    AeroDyn (unknown version, unknown date) [not called]
    ServoDyn (v1.06.00a-bjj, 26-Jul-2016)
    HydroDyn (v2.05.01, 27-Jul-2016)
    SubDyn (unknown version, unknown date) [not called]
    MAP (unknown version, unknown date) [not called]
    FEAMooring (unknown version, unknown date) [not called]
    MoorDyn (v1.01.02F, 8-Apr-2016)
    OrcaFlexInterface (unknown version, unknown date) [not called]
    IceFloe (unknown version, unknown date) [not called]
    IceDyn (unknown version, unknown date) [not called]


Modeling a floating offshore turbine
Description from the FAST input file: 
  LIFES50+ Olav Olsen Gulf of Maine OO-Star Public Design with DTU 10MW Reference Wind Turbine, Michael Borg (borg@dtu.dk) and Antonio Pegalajar-Jurado (ampj@dtu.dk), DTU Wind Energy, August 2017.

Interpolation order for input/output time histories: 2 (quadratic)
Number of correction iterations:  1
Number of rows in Jacobian matrix used for coupling ElastoDyn to HydroDyn:     12


   Requested Time Steps  
  -------------------------------------------------
  Component          Time Step (s)    Subcycles (-)
  -----------------  ---------------  -------------
  FAST (glue code)    2.500E-02
  InflowWind          2.500E-02              1
  ElastoDyn           2.500E-03             10
  AeroDyn14           2.500E-02              1
  ServoDyn            2.500E-02              1
  HydroDyn            2.500E-02              1
  MoorDyn             2.500E-02              1
  FAST output files   2.500E-02              1


   Requested Channels in FAST Output File(s)  
  --------------------------------------------
  Number  Name        Units       Generated by
  ------  ----------  ----------  ------------
       1  Time        (s)         FAST
       2  Wind1VelX   (m/s)       InflowWind
       3  Wind1VelY   (m/s)       InflowWind
       4  Wind1VelZ   (m/s)       InflowWind
       5  TipDxc1     (m)         ElastoDyn
       6  TipDyc1     (m)         ElastoDyn
       7  TipDxc2     (m)         ElastoDyn
       8  TipDyc2     (m)         ElastoDyn
       9  TipDxc3     (m)         ElastoDyn
      10  TipDyc3     (m)         ElastoDyn
      11  BldPitch1   (deg)       ElastoDyn
      12  BldPitch2   (deg)       ElastoDyn
      13  BldPitch3   (deg)       ElastoDyn
      14  PtfmSurge   (m)         ElastoDyn
      15  PtfmSway    (m)         ElastoDyn
      16  PtfmHeave   (m)         ElastoDyn
      17  PtfmRoll    (deg)       ElastoDyn
      18  PtfmPitch   (deg)       ElastoDyn
      19  PtfmYaw     (deg)       ElastoDyn
      20  Azimuth     (deg)       ElastoDyn
      21  RotSpeed    (rpm)       ElastoDyn
      22  RotAccel    (deg/s^2)   ElastoDyn
      23  LSSGagP     (deg)       ElastoDyn
      24  LSSGagV     (rpm)       ElastoDyn
      25  LSSGagA     (deg/s^2)   ElastoDyn
      26  GenSpeed    (rpm)       ElastoDyn
      27  GenAccel    (deg/s^2)   ElastoDyn
      28  YawPos      (deg)       ElastoDyn
      29  YawRate     (deg/s)     ElastoDyn
      30  YawAccel    (deg/s^2)   ElastoDyn
      31  YawBrTDxp   (m)         ElastoDyn
      32  YawBrTDyp   (m)         ElastoDyn
      33  YawBrTDzp   (m)         ElastoDyn
      34  YawBrTDxt   (m)         ElastoDyn
      35  YawBrTDyt   (m)         ElastoDyn
      36  YawBrTDzt   (m)         ElastoDyn
      37  YawBrTAxp   (m/s^2)     ElastoDyn
      38  YawBrTAyp   (m/s^2)     ElastoDyn
      39  YawBrTAzp   (m/s^2)     ElastoDyn
      40  RootFxc1    (kN)        ElastoDyn
      41  RootFyc1    (kN)        ElastoDyn
      42  RootFzc1    (kN)        ElastoDyn
      43  RootFxb1    (kN)        ElastoDyn
      44  RootFyb1    (kN)        ElastoDyn
      45  RootMxc1    (kN·m)      ElastoDyn
      46  RootMyc1    (kN·m)      ElastoDyn
      47  RootMzc1    (kN·m)      ElastoDyn
      48  RootMxb1    (kN·m)      ElastoDyn
      49  RootMyb1    (kN·m)      ElastoDyn
      50  RootFxc2    (kN)        ElastoDyn
      51  RootFyc2    (kN)        ElastoDyn
      52  RootFzc2    (kN)        ElastoDyn
      53  RootFxb2    (kN)        ElastoDyn
      54  RootFyb2    (kN)        ElastoDyn
      55  RootMxc2    (kN·m)      ElastoDyn
      56  RootMyc2    (kN·m)      ElastoDyn
      57  RootMzc2    (kN·m)      ElastoDyn
      58  RootMxb2    (kN·m)      ElastoDyn
      59  RootMyb2    (kN·m)      ElastoDyn
      60  RootFxc3    (kN)        ElastoDyn
      61  RootFyc3    (kN)        ElastoDyn
      62  RootFzc3    (kN)        ElastoDyn
      63  RootFxb3    (kN)        ElastoDyn
      64  RootFyb3    (kN)        ElastoDyn
      65  RootMxc3    (kN·m)      ElastoDyn
      66  RootMyc3    (kN·m)      ElastoDyn
      67  RootMzc3    (kN·m)      ElastoDyn
      68  RootMxb3    (kN·m)      ElastoDyn
      69  RootMyb3    (kN·m)      ElastoDyn
      70  RotThrust   (kN)        ElastoDyn
      71  LSShftFya   (kN)        ElastoDyn
      72  LSShftFza   (kN)        ElastoDyn
      73  LSShftFys   (kN)        ElastoDyn
      74  LSShftFzs   (kN)        ElastoDyn
      75  LSShftTq    (kN·m)      ElastoDyn
      76  LSSTipMya   (kN·m)      ElastoDyn
      77  LSSTipMza   (kN·m)      ElastoDyn
      78  LSSTipMys   (kN·m)      ElastoDyn
      79  LSSTipMzs   (kN·m)      ElastoDyn
      80  LSSGagMya   (kN·m)      ElastoDyn
      81  LSSGagMza   (kN·m)      ElastoDyn
      82  LSSGagMys   (kN·m)      ElastoDyn
      83  LSSGagMzs   (kN·m)      ElastoDyn
      84  HSShftTq    (kN·m)      ElastoDyn
      85  HSShftPwr   (kW)        ElastoDyn
      86  HSSBrTq     (kN·m)      ElastoDyn
      87  YawBrFxn    (kN)        ElastoDyn
      88  YawBrFyn    (kN)        ElastoDyn
      89  YawBrFzn    (kN)        ElastoDyn
      90  YawBrFxp    (kN)        ElastoDyn
      91  YawBrFyp    (kN)        ElastoDyn
      92  YawBrMxn    (kN·m)      ElastoDyn
      93  YawBrMyn    (kN·m)      ElastoDyn
      94  YawBrMzn    (kN·m)      ElastoDyn
      95  YawBrMxp    (kN·m)      ElastoDyn
      96  YawBrMyp    (kN·m)      ElastoDyn
      97  TwrBsFxt    (kN)        ElastoDyn
      98  TwrBsFyt    (kN)        ElastoDyn
      99  TwrBsFzt    (kN)        ElastoDyn
     100  TwrBsMxt    (kN·m)      ElastoDyn
     101  TwrBsMyt    (kN·m)      ElastoDyn
     102  TwrBsMzt    (kN·m)      ElastoDyn
     103  NcIMUTAxs   (m/s^2)     ElastoDyn
     104  NcIMUTAys   (m/s^2)     ElastoDyn
     105  GenPwr      (kW)        ServoDyn
     106  GenTq       (kN·m)      ServoDyn
     107  Wave1Elev   (m)         HydroDyn
     108  FAIRTEN4    (N)         MoorDyn
     109  FAIRTEN5    (N)         MoorDyn
     110  FAIRTEN6    (N)         MoorDyn
     111  ANCHTEN1    (N)         MoorDyn
     112  ANCHTEN2    (N)         MoorDyn
     113  ANCHTEN3    (N)         MoorDyn
