
FAST Summary File

Predictions were generated on 26-Jan-2018 at 20:40:36 using FAST (v8.16.00a-bjj, 27-Jul-2016), compiled as a 32-bit application using single precision
  compiled with
    NWTC Subroutine Library (v2.09.00, 23-Jul-2016)
    ElastoDyn (v1.04.00a-bjj, 26-Jul-2016)
    BeamDyn (unknown version, unknown date) [not called]
    InflowWind (unknown version, unknown date) [not called]
    AeroDyn14 (unknown version, unknown date) [not called]
    AeroDyn (unknown version, unknown date) [not called]
    ServoDyn (unknown version, unknown date) [not called]
    HydroDyn (v2.05.01, 27-Jul-2016)
    SubDyn (unknown version, unknown date) [not called]
    MAP (unknown version, unknown date) [not called]
    FEAMooring (unknown version, unknown date) [not called]
    MoorDyn (v1.01.02F, 8-Apr-2016)
    OrcaFlexInterface (unknown version, unknown date) [not called]
    IceFloe (unknown version, unknown date) [not called]
    IceDyn (unknown version, unknown date) [not called]


Modeling a floating offshore turbine
Description from the FAST input file: 
  LIFES50+ Olav Olsen Gulf of Maine OO-Star Public Design with DTU 10MW Reference Wind Turbine, Michael Borg (borg@dtu.dk) and Antonio Pegalajar-Jurado (ampj@dtu.dk), DTU Wind Energy, August 2017.

Interpolation order for input/output time histories: 2 (quadratic)
Number of correction iterations:  1
Number of rows in Jacobian matrix used for coupling ElastoDyn to HydroDyn:     12


   Requested Time Steps  
  -------------------------------------------------
  Component          Time Step (s)    Subcycles (-)
  -----------------  ---------------  -------------
  FAST (glue code)    2.500E-02
  ElastoDyn           2.500E-03             10
  HydroDyn            2.500E-02              1
  MoorDyn             2.500E-02              1
  FAST output files   2.500E-02              1


   Requested Channels in FAST Output File(s)  
  --------------------------------------------
  Number  Name        Units       Generated by
  ------  ----------  ----------  ------------
       1  Time        (s)         FAST
       2  TipDxc1     (m)         ElastoDyn
       3  TipDyc1     (m)         ElastoDyn
       4  TipDxc2     (m)         ElastoDyn
       5  TipDyc2     (m)         ElastoDyn
       6  TipDxc3     (m)         ElastoDyn
       7  TipDyc3     (m)         ElastoDyn
       8  BldPitch1   (deg)       ElastoDyn
       9  BldPitch2   (deg)       ElastoDyn
      10  BldPitch3   (deg)       ElastoDyn
      11  PtfmSurge   (m)         ElastoDyn
      12  PtfmSway    (m)         ElastoDyn
      13  PtfmHeave   (m)         ElastoDyn
      14  PtfmRoll    (deg)       ElastoDyn
      15  PtfmPitch   (deg)       ElastoDyn
      16  PtfmYaw     (deg)       ElastoDyn
      17  Azimuth     (deg)       ElastoDyn
      18  RotSpeed    (rpm)       ElastoDyn
      19  RotAccel    (deg/s^2)   ElastoDyn
      20  LSSGagP     (deg)       ElastoDyn
      21  LSSGagV     (rpm)       ElastoDyn
      22  LSSGagA     (deg/s^2)   ElastoDyn
      23  GenSpeed    (rpm)       ElastoDyn
      24  GenAccel    (deg/s^2)   ElastoDyn
      25  YawPos      (deg)       ElastoDyn
      26  YawRate     (deg/s)     ElastoDyn
      27  YawAccel    (deg/s^2)   ElastoDyn
      28  YawBrTDxp   (m)         ElastoDyn
      29  YawBrTDyp   (m)         ElastoDyn
      30  YawBrTDzp   (m)         ElastoDyn
      31  YawBrTDxt   (m)         ElastoDyn
      32  YawBrTDyt   (m)         ElastoDyn
      33  YawBrTDzt   (m)         ElastoDyn
      34  YawBrTAxp   (m/s^2)     ElastoDyn
      35  YawBrTAyp   (m/s^2)     ElastoDyn
      36  YawBrTAzp   (m/s^2)     ElastoDyn
      37  RootFxc1    (kN)        ElastoDyn
      38  RootFyc1    (kN)        ElastoDyn
      39  RootFzc1    (kN)        ElastoDyn
      40  RootFxb1    (kN)        ElastoDyn
      41  RootFyb1    (kN)        ElastoDyn
      42  RootMxc1    (kN·m)      ElastoDyn
      43  RootMyc1    (kN·m)      ElastoDyn
      44  RootMzc1    (kN·m)      ElastoDyn
      45  RootMxb1    (kN·m)      ElastoDyn
      46  RootMyb1    (kN·m)      ElastoDyn
      47  RootFxc2    (kN)        ElastoDyn
      48  RootFyc2    (kN)        ElastoDyn
      49  RootFzc2    (kN)        ElastoDyn
      50  RootFxb2    (kN)        ElastoDyn
      51  RootFyb2    (kN)        ElastoDyn
      52  RootMxc2    (kN·m)      ElastoDyn
      53  RootMyc2    (kN·m)      ElastoDyn
      54  RootMzc2    (kN·m)      ElastoDyn
      55  RootMxb2    (kN·m)      ElastoDyn
      56  RootMyb2    (kN·m)      ElastoDyn
      57  RootFxc3    (kN)        ElastoDyn
      58  RootFyc3    (kN)        ElastoDyn
      59  RootFzc3    (kN)        ElastoDyn
      60  RootFxb3    (kN)        ElastoDyn
      61  RootFyb3    (kN)        ElastoDyn
      62  RootMxc3    (kN·m)      ElastoDyn
      63  RootMyc3    (kN·m)      ElastoDyn
      64  RootMzc3    (kN·m)      ElastoDyn
      65  RootMxb3    (kN·m)      ElastoDyn
      66  RootMyb3    (kN·m)      ElastoDyn
      67  RotThrust   (kN)        ElastoDyn
      68  LSShftFya   (kN)        ElastoDyn
      69  LSShftFza   (kN)        ElastoDyn
      70  LSShftFys   (kN)        ElastoDyn
      71  LSShftFzs   (kN)        ElastoDyn
      72  LSShftTq    (kN·m)      ElastoDyn
      73  LSSTipMya   (kN·m)      ElastoDyn
      74  LSSTipMza   (kN·m)      ElastoDyn
      75  LSSTipMys   (kN·m)      ElastoDyn
      76  LSSTipMzs   (kN·m)      ElastoDyn
      77  LSSGagMya   (kN·m)      ElastoDyn
      78  LSSGagMza   (kN·m)      ElastoDyn
      79  LSSGagMys   (kN·m)      ElastoDyn
      80  LSSGagMzs   (kN·m)      ElastoDyn
      81  HSShftTq    (kN·m)      ElastoDyn
      82  HSShftPwr   (kW)        ElastoDyn
      83  HSSBrTq     (kN·m)      ElastoDyn
      84  YawBrFxn    (kN)        ElastoDyn
      85  YawBrFyn    (kN)        ElastoDyn
      86  YawBrFzn    (kN)        ElastoDyn
      87  YawBrFxp    (kN)        ElastoDyn
      88  YawBrFyp    (kN)        ElastoDyn
      89  YawBrMxn    (kN·m)      ElastoDyn
      90  YawBrMyn    (kN·m)      ElastoDyn
      91  YawBrMzn    (kN·m)      ElastoDyn
      92  YawBrMxp    (kN·m)      ElastoDyn
      93  YawBrMyp    (kN·m)      ElastoDyn
      94  TwrBsFxt    (kN)        ElastoDyn
      95  TwrBsFyt    (kN)        ElastoDyn
      96  TwrBsFzt    (kN)        ElastoDyn
      97  TwrBsMxt    (kN·m)      ElastoDyn
      98  TwrBsMyt    (kN·m)      ElastoDyn
      99  TwrBsMzt    (kN·m)      ElastoDyn
     100  NcIMUTAxs   (m/s^2)     ElastoDyn
     101  NcIMUTAys   (m/s^2)     ElastoDyn
     102  Wave1Elev   (m)         HydroDyn
     103  FAIRTEN4    (N)         MoorDyn
     104  FAIRTEN5    (N)         MoorDyn
     105  FAIRTEN6    (N)         MoorDyn
     106  ANCHTEN1    (N)         MoorDyn
     107  ANCHTEN2    (N)         MoorDyn
     108  ANCHTEN3    (N)         MoorDyn
